# vtk DataFile Version 3.0
GW Strain h
ASCII
DATASET STRUCTURED_POINTS
DIMENSIONS 150 150 75
ORIGIN -75 -75 -75
SPACING 1.00666 1.00666 1.01333
POINT_DATA 1687500
SCALARS GW-FIELD float
LOOKUP_TABLE default
h[0,0,0]
h[1,0,0]
h[2,0,0]
...
h[0,1,0]
h[1,1,0]
h[2,1,0]
...
h[0,0,1]
h[1,0,1]
h[2,0,1]
...