# vtk DataFile Version 2.0
spin_vector
ASCII
DATASET STRUCTURED_POINTS
DIMENSIONS 3 3 3
ORIGIN -30 -30 -30
SPACING 30 30 30
POINT_DATA 27
VECTORS spinvec float
8.185832e-04 5.333040e-04 2.078931e-03
8.185832e-04 5.333040e-04 2.078931e-03
8.185832e-04 5.333040e-04 2.078931e-03
8.185832e-04 5.333040e-04 2.078931e-03
...