# vtk DataFile Version 2.0
spin_vector
ASCII
DATASET STRUCTURED_POINTS
DIMENSIONS 3 3 3
ORIGIN -30 -30 -30
SPACING 30 30 30
POINT_DATA 27
VECTORS spinvec float
1.422324e-03 1.375480e-04 1.458549e-03
1.422324e-03 1.375480e-04 1.458549e-03
1.422324e-03 1.375480e-04 1.458549e-03
1.422324e-03 1.375480e-04 1.458549e-03
1.422324e-03 1.375480e-04 1.458549e-03
1.422324e-03 1.375480e-04 1.458549e-03
1.422324e-03 1.375480e-04 1.458549e-03
1.422324e-03 1.375480e-04 1.458549e-03
1.422324e-03 1.375480e-04 1.458549e-03
1.422324e-03 1.375480e-04 1.458549e-03
1.422324e-03 1.375480e-04 1.458549e-03
1.422324e-03 1.375480e-04 1.458549e-03
1.422324e-03 1.375480e-04 1.458549e-03
1.422324e-03 1.375480e-04 1.458549e-03
1.422324e-03 1.375480e-04 1.458549e-03
1.422324e-03 1.375480e-04 1.458549e-03
1.422324e-03 1.375480e-04 1.458549e-03
1.422324e-03 1.375480e-04 1.458549e-03
1.422324e-03 1.375480e-04 1.458549e-03
1.422324e-03 1.375480e-04 1.458549e-03
1.422324e-03 1.375480e-04 1.458549e-03
1.422324e-03 1.375480e-04 1.458549e-03
1.422324e-03 1.375480e-04 1.458549e-03
1.422324e-03 1.375480e-04 1.458549e-03
1.422324e-03 1.375480e-04 1.458549e-03
1.422324e-03 1.375480e-04 1.458549e-03
1.422324e-03 1.375480e-04 1.458549e-03