# vtk DataFile Version 3.0
test_vector_field
ASCII
DATASET STRUCTURED_POINTS
DIMENSIONS 3 3 3
ORIGIN -3 -3 -3
SPACING 3 3 3
POINT_DATA 27
VECTORS test_vec float
1.000000 0.000000 0.000000
1.000000 0.000000 0.000000
1.000000 0.000000 0.000000
1.000000 0.000000 0.000000
...