# vtk DataFile Version 3.0
GW Strain h
ASCII
DATASET STRUCTURED_POINTS
DIMENSIONS 200 200
ORIGIN -100 -100
SPACING 1.005 1.005
POINT_DATA 40000
SCALARS GW-FIELD float
LOOKUP_TABLE default
h[0,0]
h[1,0]
h[2,0]
...
h[0,1]
h[1,1]
h[2,1]
...
